<VTKFile type="UnstructuredGrid" version="0.1" byte_order="LittleEndian"> 
<UnstructuredGrid> 
<Piece NumberOfPoints="33" NumberOfCells="20"> 
<Points> 
<DataArray type="Float64" NumberOfComponents="3" format="ascii"> 
 0.0  0.0 0.0
 5.5  0.0 0.0
11.0  0.0 0.0
16.5  0.0 0.0
22.0  0.0 0.0
27.5  0.0 0.0
33.0  0.0 0.0
38.5  0.0 0.0
44.0  0.0 0.0
49.5  0.0 0.0
55.0  0.0 0.0
 0.0  5.0 0.0
 5.5  5.0 0.0
11.0  5.0 0.0
16.5  5.0 0.0
22.0  5.0 0.0
27.5  5.0 0.0
33.0  5.0 0.0
38.5  5.0 0.0
44.0  5.0 0.0
49.5  5.0 0.0
55.0  5.0 0.0
 0.0 10.0 0.0
 5.5 10.0 0.0
11.0 10.0 0.0
16.5 10.0 0.0
22.0 10.0 0.0
27.5 10.0 0.0
33.0 10.0 0.0
38.5 10.0 0.0
44.0 10.0 0.0
49.5 10.0 0.0
55.0 10.0 0.0
</DataArray> 
</Points> 
<PointData Tensors="" Vectors="" Scalars="">
<DataArray type="Float32" Name="X_" format="ascii"> 
 146.050995
   0.000000
   0.000000
   0.000000
   0.000000
   0.000000
   0.000000
   0.000000
   0.000000
   0.000000
   0.000000
-153.615997
   0.000000
   0.000000
   0.000000
   0.000000
   0.000000
   0.000000
   0.000000
   0.000000
   0.000000
   0.000000
 146.052002
   0.000000
   0.000000
   0.000000
   0.000000
   0.000000
   0.000000
   0.000000
   0.000000
   0.000000
   0.000000
</DataArray> 

<DataArray type="Float32" Name="Y_" format="ascii"> 
  0.000000
  0.000000
  0.000000
  0.000000
  0.000000
  0.000000
  0.000000
  0.000000
  3.101460
  3.880480
  0.000000
 80.772797
 86.670998
 68.862198
 61.822102
 52.717800
 44.012798
 35.291000
 26.437599
 17.524599
 11.396100
  2.071990
441.036987
384.451996
354.309998
307.697998
264.335999
220.397995
176.552994
132.800003
 89.960899
 63.584202
 22.168800
</DataArray> 

<DataArray type="Float32" Name="Yhat_" format="ascii"> 
 -0.012574
  0.014929
 -0.001479
 -0.000226
  0.013518
  0.006307
 -0.060252
 -0.015468
  3.106427
  3.869868
 -0.029425
 80.774498
 86.658859
 68.868248
 61.821514
 52.717987
 44.012085
 35.322948
 26.432720
 17.540934
 11.405549
  2.086536
441.036652
384.461792
354.310211
307.691254
264.334473
220.416031
176.556198
132.806732
 89.955338
 63.602463
 22.152191
</DataArray> 

 <DataArray type="Float32" Name="err_" format="ascii"> 
 0.012574
-0.014929
 0.001479
 0.000226
-0.013518
-0.006307
 0.060252
 0.015468
-0.004967
 0.010612
 0.029425
-0.001701
 0.012138
-0.006050
 0.000587
-0.000187
 0.000713
-0.031948
 0.004879
-0.016335
-0.009449
-0.014546
 0.000336
-0.009796
-0.000214
 0.006744
 0.001526
-0.018036
-0.003204
-0.006729
 0.005562
-0.018261
 0.016609
</DataArray> 
</PointData> 
<Cells> 
<DataArray type="Int32" Name="connectivity" format="ascii"> 
 0  1 12 11
 1  2 13 12
 2  3 14 13
 3  4 15 14
 4  5 16 15
 5  6 17 16
 6  7 18 17
 7  8 19 18
 8  9 20 19
 9 10 21 20
11 12 23 22
12 13 24 23
13 14 25 24
14 15 26 25
15 16 27 26
16 17 28 27
17 18 29 28
18 19 30 29
19 20 31 30
20 21 32 31
</DataArray>

<DataArray type="Int32" Name="offsets" format="ascii">
 4
 8
12
16
20
24
28
32
36
40
44
48
52
56
60
64
68
72
76
80
</DataArray>
<DataArray type="UInt8" Name="types" format="ascii">
9
9
9
9
9
9
9
9
9
9
9
9
9
9
9
9
9
9
9
9
</DataArray>
</Cells>
</Piece>
</UnstructuredGrid>
</VTKFile>
