<VTKFile type="UnstructuredGrid" version="0.1" byte_order="LittleEndian"> 
<UnstructuredGrid> 
<Piece NumberOfPoints="33" NumberOfCells="20"> 
<Points> 
<DataArray type="Float64" NumberOfComponents="3" format="ascii"> 
 0.0  0.0 0.0
 5.5  0.0 0.0
11.0  0.0 0.0
16.5  0.0 0.0
22.0  0.0 0.0
27.5  0.0 0.0
33.0  0.0 0.0
38.5  0.0 0.0
44.0  0.0 0.0
49.5  0.0 0.0
55.0  0.0 0.0
 0.0  5.0 0.0
 5.5  5.0 0.0
11.0  5.0 0.0
16.5  5.0 0.0
22.0  5.0 0.0
27.5  5.0 0.0
33.0  5.0 0.0
38.5  5.0 0.0
44.0  5.0 0.0
49.5  5.0 0.0
55.0  5.0 0.0
 0.0 10.0 0.0
 5.5 10.0 0.0
11.0 10.0 0.0
16.5 10.0 0.0
22.0 10.0 0.0
27.5 10.0 0.0
33.0 10.0 0.0
38.5 10.0 0.0
44.0 10.0 0.0
49.5 10.0 0.0
55.0 10.0 0.0
</DataArray> 
</Points> 
<PointData Tensors="" Vectors="" Scalars="">
<DataArray type="Float32" Name="X_" format="ascii"> 
205.108994 0.0 0.0 0.0 0.0 0.0 0.0 0.0 0.0 0.0 0.0 -215.731003 0.0 0.0 0.0 0.0 0.0 0.0 0.0 0.0 0.0 0.0 205.110992 0.0 0.0 0.0 0.0 0.0 0.0 0.0 0.0 0.0 0.0
</DataArray> 

<DataArray type="Float32" Name="Y_" format="ascii"> 
0.0 0.0 0.0 0.0 0.0 0.0 0.0 0.0 4.35548 5.44949 0.0 113.434998 121.718002 96.707298 86.820198 74.034302 61.8092 49.560501 37.127201 24.6105 16.004 2.90977 619.377014 539.911011 497.57901 432.117004 371.221008 309.515015 247.940002 186.496002 126.334999 89.2938 31.1327
</DataArray> 

<DataArray type="Float32" Name="Yhat_" format="ascii"> 
0.220144 0.067196 0.007924 -0.030909 -0.070452 0.031156 -0.040111 -0.022517 4.099321 5.475205 -0.007344 113.647789 121.911049 96.271637 87.042931 74.213554 61.598972 49.47126 37.167793 24.657547 15.996691 2.972331 619.904236 540.445801 498.146088 432.701935 371.83667 310.052887 248.369141 186.881393 126.504219 90.085632 30.953501
</DataArray> 

 <DataArray type="Float32" Name="err_" format="ascii"> 
-0.220144 -0.067196 -0.007924 0.030909 0.070452 -0.031156 0.040111 0.022517 0.256159 -0.025715 0.007344 -0.212791 -0.193047 0.435661 -0.222733 -0.179253 0.210228 0.089241 -0.040592 -0.047047 0.007309 -0.062561 -0.527222 -0.53479 -0.567078 -0.58493 -0.615662 -0.537872 -0.429138 -0.385391 -0.16922 -0.791832 0.179199
</DataArray> 
</PointData> 
<Cells> 
<DataArray type="Int32" Name="connectivity" format="ascii"> 
 0  1 12 11
 1  2 13 12
 2  3 14 13
 3  4 15 14
 4  5 16 15
 5  6 17 16
 6  7 18 17
 7  8 19 18
 8  9 20 19
 9 10 21 20
11 12 23 22
12 13 24 23
13 14 25 24
14 15 26 25
15 16 27 26
16 17 28 27
17 18 29 28
18 19 30 29
19 20 31 30
20 21 32 31
</DataArray>

<DataArray type="Int32" Name="offsets" format="ascii">
 4
 8
12
16
20
24
28
32
36
40
44
48
52
56
60
64
68
72
76
80
</DataArray>
<DataArray type="UInt8" Name="types" format="ascii">
9
9
9
9
9
9
9
9
9
9
9
9
9
9
9
9
9
9
9
9
</DataArray>
</Cells>
</Piece>
</UnstructuredGrid>
</VTKFile>
