<VTKFile type="UnstructuredGrid" version="0.1" byte_order="LittleEndian"> 
<UnstructuredGrid> 
<Piece NumberOfPoints="33" NumberOfCells="20"> 
<Points> 
<DataArray type="Float64" NumberOfComponents="3" format="ascii"> 
 0.0  0.0 0.0
 5.5  0.0 0.0
11.0  0.0 0.0
16.5  0.0 0.0
22.0  0.0 0.0
27.5  0.0 0.0
33.0  0.0 0.0
38.5  0.0 0.0
44.0  0.0 0.0
49.5  0.0 0.0
55.0  0.0 0.0
 0.0  5.0 0.0
 5.5  5.0 0.0
11.0  5.0 0.0
16.5  5.0 0.0
22.0  5.0 0.0
27.5  5.0 0.0
33.0  5.0 0.0
38.5  5.0 0.0
44.0  5.0 0.0
49.5  5.0 0.0
55.0  5.0 0.0
 0.0 10.0 0.0
 5.5 10.0 0.0
11.0 10.0 0.0
16.5 10.0 0.0
22.0 10.0 0.0
27.5 10.0 0.0
33.0 10.0 0.0
38.5 10.0 0.0
44.0 10.0 0.0
49.5 10.0 0.0
55.0 10.0 0.0
</DataArray> 
</Points> 
<PointData Tensors="" Vectors="" Scalars="">
<DataArray type="Float32" Name="X_" format="ascii"> 
21.603001 0.0 0.0 0.0 0.0 0.0 0.0 0.0 0.0 0.0 0.0 -22.729601 0.0 0.0 0.0 0.0 0.0 0.0 0.0 0.0 0.0 0.0 21.603001 0.0 0.0 0.0 0.0 0.0 0.0 0.0 0.0 0.0 0.0
</DataArray> 

<DataArray type="Float32" Name="Y_" format="ascii"> 
0.0 0.0 0.0 0.0 0.0 0.0 0.0 0.0 0.459042 0.574357 0.0 11.9478 12.8217 10.1879 9.14711 7.80083 6.51343 5.22317 3.91302 2.59383 1.68677 0.306678 65.243103 56.874599 52.418701 45.526199 39.113899 32.615398 26.129101 19.655001 13.315 9.41119 3.2812
</DataArray> 

<DataArray type="Float32" Name="Yhat_" format="ascii"> 
0.00005 -0.000115 0.000029 0.000555 -0.000088 -0.000025 -0.000016 -0.000002 0.4591 0.574354 -0.000031 11.955891 12.842258 10.199024 9.146865 7.800615 6.513912 5.222676 3.91663 2.593911 1.68661 0.306669 66.004166 57.526054 53.184494 45.927303 39.589996 33.056507 26.271805 19.704105 13.34391 9.435181 3.280946
</DataArray> 

 <DataArray type="Float32" Name="err_" format="ascii"> 
-0.00005 0.000115 -0.000029 -0.000555 0.000088 0.000025 0.000016 0.000002 -0.000058 0.000003 0.000031 -0.008091 -0.020558 -0.011125 0.000245 0.000215 -0.000482 0.000494 -0.00361 -0.000081 0.00016 0.000009 -0.761063 -0.651455 -0.765793 -0.401104 -0.476097 -0.441109 -0.142704 -0.049105 -0.028911 -0.023991 0.000254
</DataArray> 
</PointData> 
<Cells> 
<DataArray type="Int32" Name="connectivity" format="ascii"> 
 0  1 12 11
 1  2 13 12
 2  3 14 13
 3  4 15 14
 4  5 16 15
 5  6 17 16
 6  7 18 17
 7  8 19 18
 8  9 20 19
 9 10 21 20
11 12 23 22
12 13 24 23
13 14 25 24
14 15 26 25
15 16 27 26
16 17 28 27
17 18 29 28
18 19 30 29
19 20 31 30
20 21 32 31
</DataArray>

<DataArray type="Int32" Name="offsets" format="ascii">
 4
 8
12
16
20
24
28
32
36
40
44
48
52
56
60
64
68
72
76
80
</DataArray>
<DataArray type="UInt8" Name="types" format="ascii">
9
9
9
9
9
9
9
9
9
9
9
9
9
9
9
9
9
9
9
9
</DataArray>
</Cells>
</Piece>
</UnstructuredGrid>
</VTKFile>
