<VTKFile type="UnstructuredGrid" version="0.1" byte_order="LittleEndian"> 
<UnstructuredGrid> 
<Piece NumberOfPoints="24" NumberOfCells="5"> 
<Points> 
<DataArray type="Float64" NumberOfComponents="3" format="ascii"> 
 5.0  2.5 50.0
 5.0 -2.5 50.0
 5.0  2.5 40.0
 5.0 -2.5 40.0
 5.0  2.5 30.0
 5.0 -2.5 30.0
 5.0  2.5 20.0
 5.0 -2.5 20.0
 5.0  2.5 10.0
 5.0 -2.5 10.0
 5.0  2.5  0.0
 5.0 -2.5  0.0
-5.0  2.5 50.0
-5.0 -2.5 50.0
-5.0  2.5 40.0
-5.0 -2.5 40.0
-5.0  2.5 30.0
-5.0 -2.5 30.0
-5.0  2.5 20.0
-5.0 -2.5 20.0
-5.0  2.5 10.0
-5.0 -2.5 10.0
-5.0  2.5  0.0
-5.0 -2.5  0.0
</DataArray> 
</Points> 
<PointData Tensors="" Vectors="" Scalars="">
<DataArray type="Float32" Name="X_" format="ascii"> 
0.00000
0.00000
0.00000
0.00000
0.00000
0.00000
0.00000
0.00000
0.00000
0.00000
6.94659
7.54881
0.00000
0.00000
0.00000
0.00000
0.00000
0.00000
0.00000
0.00000
0.00000
0.00000
6.94659
7.54881
</DataArray> 

<DataArray type="Float32" Name="Y_" format="ascii"> 
 1.192300
 0.646069
 3.345590
 2.658630
 6.610200
 5.369060
 9.942110
 7.985260
13.108400
10.826000
15.746000
11.790400
 1.192300
 0.646069
 3.345590
 2.658630
 6.610200
 5.369060
 9.942110
 7.985260
13.108400
10.826000
15.746000
11.790400
</DataArray> 

<DataArray type="Float32" Name="Yhat_" format="ascii"> 
 1.190575
 0.669529
 3.368782
 2.658642
 6.593174
 5.356039
 9.934566
 7.974544
13.096175
10.824419
15.735778
11.778969
 1.200095
 0.674510
 3.341878
 2.614806
 6.589161
 5.355057
 9.933249
 7.971683
13.096787
10.816132
15.726500
11.778922
</DataArray> 

 <DataArray type="Float32" Name="err_" format="ascii"> 
 0.001725
-0.023460
-0.023192
-0.000012
 0.017025
 0.013021
 0.007544
 0.010716
 0.012225
 0.001581
 0.010222
 0.011431
-0.007795
-0.028441
 0.003712
 0.043824
 0.021039
 0.014003
 0.008862
 0.013577
 0.011613
 0.009869
 0.019501
 0.011477
</DataArray> 
</PointData> 
<Cells> 
<DataArray type="Int32" Name="connectivity" format="ascii"> 
12 13 15 14 0 1  3  2
14 15 17 16 2 3  5  4
16 17 19 18 4 5  7  6
18 19 21 20 6 7  9  8
20 21 23 22 8 9 11 10
</DataArray>

<DataArray type="Int32" Name="offsets" format="ascii">
 8
16
24
32
40
</DataArray>
<DataArray type="UInt8" Name="types" format="ascii">
12
12
12
12
12
</DataArray>
</Cells>
</Piece>
</UnstructuredGrid>
</VTKFile>
