<VTKFile type="UnstructuredGrid" version="0.1" byte_order="LittleEndian"> 
<UnstructuredGrid> 
<Piece NumberOfPoints="24" NumberOfCells="5"> 
<Points> 
<DataArray type="Float64" NumberOfComponents="3" format="ascii"> 
 5.0  2.5 50.0
 5.0 -2.5 50.0
 5.0  2.5 40.0
 5.0 -2.5 40.0
 5.0  2.5 30.0
 5.0 -2.5 30.0
 5.0  2.5 20.0
 5.0 -2.5 20.0
 5.0  2.5 10.0
 5.0 -2.5 10.0
 5.0  2.5  0.0
 5.0 -2.5  0.0
-5.0  2.5 50.0
-5.0 -2.5 50.0
-5.0  2.5 40.0
-5.0 -2.5 40.0
-5.0  2.5 30.0
-5.0 -2.5 30.0
-5.0  2.5 20.0
-5.0 -2.5 20.0
-5.0  2.5 10.0
-5.0 -2.5 10.0
-5.0  2.5  0.0
-5.0 -2.5  0.0
</DataArray> 
</Points> 
<PointData Tensors="" Vectors="" Scalars="">
<DataArray type="Float32" Name="X_" format="ascii"> 
0.000000
0.000000
0.000000
0.000000
0.000000
0.000000
0.000000
0.000000
0.000000
0.000000
0.664968
0.664969
0.000000
0.000000
0.000000
0.000000
0.000000
0.000000
0.000000
0.000000
0.000000
0.000000
0.664968
0.664969
</DataArray> 

<DataArray type="Float32" Name="Y_" format="ascii"> 
 2.734070
 1.481510
 7.671870
 6.096580
15.158400
12.312200
22.799801
18.312201
30.061800
24.827600
36.111301
27.039700
 2.734070
 1.481510
 7.671870
 6.096580
15.158400
12.312200
22.799801
18.312201
30.061800
24.827600
36.111301
27.039700
</DataArray> 

<DataArray type="Float32" Name="Yhat_" format="ascii"> 
0.416693
1.236516
1.786036
0.837132
1.735411
1.909725
4.015121
2.634268
4.696425
4.420296
5.474618
5.064051
0.661768
0.595464
1.027441
1.606303
1.727507
2.371883
3.470808
3.151326
5.417871
4.362367
6.449438
3.996093
</DataArray> 

 <DataArray type="Float32" Name="err_" format="ascii"> 
 2.317377
 0.244995
 5.885834
 5.259448
13.422989
10.402474
18.784679
15.677933
25.365376
20.407305
30.636684
21.975649
 2.072302
 0.886046
 6.644429
 4.490276
13.430893
 9.940317
19.328993
15.160874
24.643929
20.465233
29.661863
23.043606
</DataArray> 
</PointData> 
<Cells> 
<DataArray type="Int32" Name="connectivity" format="ascii"> 
12 13 15 14 0 1  3  2
14 15 17 16 2 3  5  4
16 17 19 18 4 5  7  6
18 19 21 20 6 7  9  8
20 21 23 22 8 9 11 10
</DataArray>

<DataArray type="Int32" Name="offsets" format="ascii">
 8
16
24
32
40
</DataArray>
<DataArray type="UInt8" Name="types" format="ascii">
12
12
12
12
12
</DataArray>
</Cells>
</Piece>
</UnstructuredGrid>
</VTKFile>
