<VTKFile type="UnstructuredGrid" version="0.1" byte_order="LittleEndian"> 
<UnstructuredGrid> 
<Piece NumberOfPoints="33" NumberOfCells="20"> 
<Points> 
<DataArray type="Float64" NumberOfComponents="3" format="ascii"> 
 0.0  0.0 0.0
 5.5  0.0 0.0
11.0  0.0 0.0
16.5  0.0 0.0
22.0  0.0 0.0
27.5  0.0 0.0
33.0  0.0 0.0
38.5  0.0 0.0
44.0  0.0 0.0
49.5  0.0 0.0
55.0  0.0 0.0
 0.0  5.0 0.0
 5.5  5.0 0.0
11.0  5.0 0.0
16.5  5.0 0.0
22.0  5.0 0.0
27.5  5.0 0.0
33.0  5.0 0.0
38.5  5.0 0.0
44.0  5.0 0.0
49.5  5.0 0.0
55.0  5.0 0.0
 0.0 10.0 0.0
 5.5 10.0 0.0
11.0 10.0 0.0
16.5 10.0 0.0
22.0 10.0 0.0
27.5 10.0 0.0
33.0 10.0 0.0
38.5 10.0 0.0
44.0 10.0 0.0
49.5 10.0 0.0
55.0 10.0 0.0
</DataArray> 
</Points> 
<PointData Tensors="" Vectors="" Scalars="">
<DataArray type="Float32" Name="X_" format="ascii"> 
177.688995 0.0 0.0 0.0 0.0 0.0 0.0 0.0 0.0 0.0 0.0 -186.891006 0.0 0.0 0.0 0.0 0.0 0.0 0.0 0.0 0.0 0.0 177.690994 0.0 0.0 0.0 0.0 0.0 0.0 0.0 0.0 0.0 0.0
</DataArray> 

<DataArray type="Float32" Name="Y_" format="ascii"> 
0.0 0.0 0.0 0.0 0.0 0.0 0.0 0.0 3.77326 4.72102 0.0 98.270401 105.445999 83.779198 75.213898 64.137398 53.5466 42.935398 32.1642 21.320601 13.8646 2.5208 536.575989 467.734009 431.061005 374.351013 321.596008 268.139008 214.796005 161.565994 109.446999 77.357201 26.9709
</DataArray> 

<DataArray type="Float32" Name="Yhat_" format="ascii"> 
0.190652 0.058601 0.007648 -0.026946 -0.061995 0.021961 -0.035019 -0.018572 3.5461 4.743945 -0.010882 98.466576 105.612793 83.404961 75.410332 64.296265 53.36475 42.859592 32.204231 21.366974 13.856683 2.570406 537.063232 468.218964 431.573608 374.872772 322.14325 268.618896 215.175873 161.91243 109.594688 78.039917 26.815329
</DataArray> 

 <DataArray type="Float32" Name="err_" format="ascii"> 
-0.190652 -0.058601 -0.007648 0.026946 0.061995 -0.021961 0.035019 0.018572 0.22716 -0.022924 0.010882 -0.196175 -0.166794 0.374237 -0.196434 -0.158867 0.18185 0.075806 -0.040031 -0.046373 0.007917 -0.049606 -0.487244 -0.484955 -0.512604 -0.521759 -0.547241 -0.479889 -0.379868 -0.346436 -0.14769 -0.682716 0.155571
</DataArray> 
</PointData> 
<Cells> 
<DataArray type="Int32" Name="connectivity" format="ascii"> 
 0  1 12 11
 1  2 13 12
 2  3 14 13
 3  4 15 14
 4  5 16 15
 5  6 17 16
 6  7 18 17
 7  8 19 18
 8  9 20 19
 9 10 21 20
11 12 23 22
12 13 24 23
13 14 25 24
14 15 26 25
15 16 27 26
16 17 28 27
17 18 29 28
18 19 30 29
19 20 31 30
20 21 32 31
</DataArray>

<DataArray type="Int32" Name="offsets" format="ascii">
 4
 8
12
16
20
24
28
32
36
40
44
48
52
56
60
64
68
72
76
80
</DataArray>
<DataArray type="UInt8" Name="types" format="ascii">
9
9
9
9
9
9
9
9
9
9
9
9
9
9
9
9
9
9
9
9
</DataArray>
</Cells>
</Piece>
</UnstructuredGrid>
</VTKFile>
