<VTKFile type="UnstructuredGrid" version="0.1" byte_order="LittleEndian"> 
<UnstructuredGrid> 
<Piece NumberOfPoints="24" NumberOfCells="5"> 
<Points> 
<DataArray type="Float64" NumberOfComponents="3" format="ascii"> 
 5.0  2.5 50.0
 5.0 -2.5 50.0
 5.0  2.5 40.0
 5.0 -2.5 40.0
 5.0  2.5 30.0
 5.0 -2.5 30.0
 5.0  2.5 20.0
 5.0 -2.5 20.0
 5.0  2.5 10.0
 5.0 -2.5 10.0
 5.0  2.5  0.0
 5.0 -2.5  0.0
-5.0  2.5 50.0
-5.0 -2.5 50.0
-5.0  2.5 40.0
-5.0 -2.5 40.0
-5.0  2.5 30.0
-5.0 -2.5 30.0
-5.0  2.5 20.0
-5.0 -2.5 20.0
-5.0  2.5 10.0
-5.0 -2.5 10.0
-5.0  2.5  0.0
-5.0 -2.5  0.0
</DataArray> 
</Points> 
<PointData Tensors="" Vectors="" Scalars="">
<DataArray type="Float32" Name="X_" format="ascii"> 
0.00000
0.00000
0.00000
0.00000
0.00000
0.00000
0.00000
0.00000
0.00000
0.00000
2.03392
2.21043
0.00000
0.00000
0.00000
0.00000
0.00000
0.00000
0.00000
0.00000
0.00000
0.00000
2.03392
2.21043
</DataArray> 

<DataArray type="Float32" Name="Y_" format="ascii"> 
0.349460
0.189361
0.980555
0.779219
1.937190
1.573470
2.913190
2.339810
3.840380
3.171700
4.612760
3.453960
0.349460
0.189361
0.980555
0.779219
1.937190
1.573470
2.913190
2.339810
3.840380
3.171700
4.612760
3.453960
</DataArray> 

<DataArray type="Float32" Name="Yhat_" format="ascii"> 
0.349165
0.197086
0.988615
0.778390
1.931803
1.569110
2.910204
2.335839
3.836167
3.171264
4.609646
3.449999
0.350876
0.199716
0.979763
0.763599
1.931609
1.568497
2.910132
2.334997
3.836336
3.168752
4.605788
3.450360
</DataArray> 

 <DataArray type="Float32" Name="err_" format="ascii"> 
 0.000295
-0.007725
-0.008060
 0.000829
 0.005387
 0.004360
 0.002986
 0.003971
 0.004213
 0.000436
 0.003114
 0.003961
-0.001416
-0.010355
 0.000792
 0.015620
 0.005581
 0.004973
 0.003058
 0.004813
 0.004044
 0.002948
 0.006972
 0.003600
</DataArray> 
</PointData> 
<Cells> 
<DataArray type="Int32" Name="connectivity" format="ascii"> 
12 13 15 14 0 1  3  2
14 15 17 16 2 3  5  4
16 17 19 18 4 5  7  6
18 19 21 20 6 7  9  8
20 21 23 22 8 9 11 10
</DataArray>

<DataArray type="Int32" Name="offsets" format="ascii">
 8
16
24
32
40
</DataArray>
<DataArray type="UInt8" Name="types" format="ascii">
12
12
12
12
12
</DataArray>
</Cells>
</Piece>
</UnstructuredGrid>
</VTKFile>
