<VTKFile type="UnstructuredGrid" version="0.1" byte_order="LittleEndian"> 
<UnstructuredGrid> 
<Piece NumberOfPoints="33" NumberOfCells="20"> 
<Points> 
<DataArray type="Float64" NumberOfComponents="3" format="ascii"> 
 0.0  0.0 0.0
 5.5  0.0 0.0
11.0  0.0 0.0
16.5  0.0 0.0
22.0  0.0 0.0
27.5  0.0 0.0
33.0  0.0 0.0
38.5  0.0 0.0
44.0  0.0 0.0
49.5  0.0 0.0
55.0  0.0 0.0
 0.0  5.0 0.0
 5.5  5.0 0.0
11.0  5.0 0.0
16.5  5.0 0.0
22.0  5.0 0.0
27.5  5.0 0.0
33.0  5.0 0.0
38.5  5.0 0.0
44.0  5.0 0.0
49.5  5.0 0.0
55.0  5.0 0.0
 0.0 10.0 0.0
 5.5 10.0 0.0
11.0 10.0 0.0
16.5 10.0 0.0
22.0 10.0 0.0
27.5 10.0 0.0
33.0 10.0 0.0
38.5 10.0 0.0
44.0 10.0 0.0
49.5 10.0 0.0
55.0 10.0 0.0
</DataArray> 
</Points> 
<PointData Tensors="" Vectors="" Scalars="">
<DataArray type="Float32" Name="X_" format="ascii"> 
34.258999 0.0 0.0 0.0 0.0 0.0 0.0 0.0 0.0 0.0 0.0 -36.0401 0.0 0.0 0.0 0.0 0.0 0.0 0.0 0.0 0.0 0.0 34.258999 0.0 0.0 0.0 0.0 0.0 0.0 0.0 0.0 0.0 0.0
</DataArray> 

<DataArray type="Float32" Name="Y_" format="ascii"> 
0.0 0.0 0.0 0.0 0.0 0.0 0.0 0.0 0.727764 0.910571 0.0 18.9471 20.3319 16.1549 14.5039 12.3687 10.3269 8.28091 6.20364 4.11221 2.67416 0.486201 103.459999 90.188004 83.119904 72.187897 62.018002 51.712002 41.426399 31.161301 21.109501 14.9203 5.20194
</DataArray> 

<DataArray type="Float32" Name="Yhat_" format="ascii"> 
0.000035 -0.000278 0.000019 0.000928 -0.000055 -0.000014 -0.000011 -0.000043 0.727783 0.910576 -0.000013 18.954325 20.350225 16.164766 14.503743 12.368545 10.32739 8.280504 6.206872 4.112275 2.674042 0.486235 104.14119 90.771553 83.805695 72.547333 62.44442 52.106682 41.553707 31.205717 21.135702 14.941928 5.201756
</DataArray> 

 <DataArray type="Float32" Name="err_" format="ascii"> 
-0.000035 0.000278 -0.000019 -0.000928 0.000055 0.000014 0.000011 0.000043 -0.000019 -0.000005 0.000013 -0.007225 -0.018326 -0.009867 0.000156 0.000155 -0.00049 0.000405 -0.003232 -0.000065 0.000118 -0.000034 -0.68119 -0.583549 -0.685791 -0.359436 -0.426418 -0.39468 -0.127308 -0.044416 -0.026201 -0.021628 0.000184
</DataArray> 
</PointData> 
<Cells> 
<DataArray type="Int32" Name="connectivity" format="ascii"> 
 0  1 12 11
 1  2 13 12
 2  3 14 13
 3  4 15 14
 4  5 16 15
 5  6 17 16
 6  7 18 17
 7  8 19 18
 8  9 20 19
 9 10 21 20
11 12 23 22
12 13 24 23
13 14 25 24
14 15 26 25
15 16 27 26
16 17 28 27
17 18 29 28
18 19 30 29
19 20 31 30
20 21 32 31
</DataArray>

<DataArray type="Int32" Name="offsets" format="ascii">
 4
 8
12
16
20
24
28
32
36
40
44
48
52
56
60
64
68
72
76
80
</DataArray>
<DataArray type="UInt8" Name="types" format="ascii">
9
9
9
9
9
9
9
9
9
9
9
9
9
9
9
9
9
9
9
9
</DataArray>
</Cells>
</Piece>
</UnstructuredGrid>
</VTKFile>
