<VTKFile type="UnstructuredGrid" version="0.1" byte_order="LittleEndian"> 
<UnstructuredGrid> 
<Piece NumberOfPoints="33" NumberOfCells="20"> 
<Points> 
<DataArray type="Float64" NumberOfComponents="3" format="ascii"> 
 0.0  0.0 0.0
 5.5  0.0 0.0
11.0  0.0 0.0
16.5  0.0 0.0
22.0  0.0 0.0
27.5  0.0 0.0
33.0  0.0 0.0
38.5  0.0 0.0
44.0  0.0 0.0
49.5  0.0 0.0
55.0  0.0 0.0
 0.0  5.0 0.0
 5.5  5.0 0.0
11.0  5.0 0.0
16.5  5.0 0.0
22.0  5.0 0.0
27.5  5.0 0.0
33.0  5.0 0.0
38.5  5.0 0.0
44.0  5.0 0.0
49.5  5.0 0.0
55.0  5.0 0.0
 0.0 10.0 0.0
 5.5 10.0 0.0
11.0 10.0 0.0
16.5 10.0 0.0
22.0 10.0 0.0
27.5 10.0 0.0
33.0 10.0 0.0
38.5 10.0 0.0
44.0 10.0 0.0
49.5 10.0 0.0
55.0 10.0 0.0
</DataArray> 
</Points> 
<PointData Tensors="" Vectors="" Scalars="">
<DataArray type="Float32" Name="X_" format="ascii"> 
152.378998 0.0 0.0 0.0 0.0 0.0 0.0 0.0 0.0 0.0 0.0 -160.270996 0.0 0.0 0.0 0.0 0.0 0.0 0.0 0.0 0.0 0.0 152.380005 0.0 0.0 0.0 0.0 0.0 0.0 0.0 0.0 0.0 0.0
</DataArray> 

<DataArray type="Float32" Name="Y_" format="ascii"> 
0.0 0.0 0.0 0.0 0.0 0.0 0.0 0.0 3.23582 4.04858 0.0 84.272301 90.426003 71.845596 64.500504 55.001701 45.919601 36.819901 27.582899 18.2838 11.8898 2.16175 460.144989 401.109009 369.660004 321.028992 275.787994 229.945999 184.201004 138.552994 93.858101 66.338799 23.1292
</DataArray> 

<DataArray type="Float32" Name="Yhat_" format="ascii"> 
0.163503 0.050662 0.007416 -0.023295 -0.054217 0.013478 -0.030364 -0.014962 3.035429 4.068951 -0.014143 84.453575 90.568626 71.528282 64.672882 55.142056 45.764114 36.756702 27.622671 18.32959 11.88131 2.199452 460.596558 401.549805 370.12384 321.493469 276.273712 230.373184 184.536713 138.864746 93.98632 66.921112 22.995605
</DataArray> 

 <DataArray type="Float32" Name="err_" format="ascii"> 
-0.163503 -0.050662 -0.007416 0.023295 0.054217 -0.013478 0.030364 0.014962 0.200391 -0.020371 0.014143 -0.181274 -0.142624 0.317314 -0.172379 -0.140354 0.155487 0.063198 -0.039772 -0.04579 0.008491 -0.037702 -0.451569 -0.440796 -0.463837 -0.464478 -0.485718 -0.427185 -0.335709 -0.311752 -0.12822 -0.582314 0.133595
</DataArray> 
</PointData> 
<Cells> 
<DataArray type="Int32" Name="connectivity" format="ascii"> 
 0  1 12 11
 1  2 13 12
 2  3 14 13
 3  4 15 14
 4  5 16 15
 5  6 17 16
 6  7 18 17
 7  8 19 18
 8  9 20 19
 9 10 21 20
11 12 23 22
12 13 24 23
13 14 25 24
14 15 26 25
15 16 27 26
16 17 28 27
17 18 29 28
18 19 30 29
19 20 31 30
20 21 32 31
</DataArray>

<DataArray type="Int32" Name="offsets" format="ascii">
 4
 8
12
16
20
24
28
32
36
40
44
48
52
56
60
64
68
72
76
80
</DataArray>
<DataArray type="UInt8" Name="types" format="ascii">
9
9
9
9
9
9
9
9
9
9
9
9
9
9
9
9
9
9
9
9
</DataArray>
</Cells>
</Piece>
</UnstructuredGrid>
</VTKFile>
