<VTKFile type="UnstructuredGrid" version="0.1" byte_order="LittleEndian"> 
<UnstructuredGrid> 
<Piece NumberOfPoints="33" NumberOfCells="20"> 
<Points> 
<DataArray type="Float64" NumberOfComponents="3" format="ascii"> 
 0.0  0.0 0.0
 5.5  0.0 0.0
11.0  0.0 0.0
16.5  0.0 0.0
22.0  0.0 0.0
27.5  0.0 0.0
33.0  0.0 0.0
38.5  0.0 0.0
44.0  0.0 0.0
49.5  0.0 0.0
55.0  0.0 0.0
 0.0  5.0 0.0
 5.5  5.0 0.0
11.0  5.0 0.0
16.5  5.0 0.0
22.0  5.0 0.0
27.5  5.0 0.0
33.0  5.0 0.0
38.5  5.0 0.0
44.0  5.0 0.0
49.5  5.0 0.0
55.0  5.0 0.0
 0.0 10.0 0.0
 5.5 10.0 0.0
11.0 10.0 0.0
16.5 10.0 0.0
22.0 10.0 0.0
27.5 10.0 0.0
33.0 10.0 0.0
38.5 10.0 0.0
44.0 10.0 0.0
49.5 10.0 0.0
55.0 10.0 0.0
</DataArray> 
</Points> 
<PointData Tensors="" Vectors="" Scalars="">
<DataArray type="Float32" Name="X_" format="ascii"> 
 146.050995
   0.000000
   0.000000
   0.000000
   0.000000
   0.000000
   0.000000
   0.000000
   0.000000
   0.000000
   0.000000
-153.615997
   0.000000
   0.000000
   0.000000
   0.000000
   0.000000
   0.000000
   0.000000
   0.000000
   0.000000
   0.000000
 146.052002
   0.000000
   0.000000
   0.000000
   0.000000
   0.000000
   0.000000
   0.000000
   0.000000
   0.000000
   0.000000
</DataArray> 

<DataArray type="Float32" Name="Y_" format="ascii"> 
  0.000000
  0.000000
  0.000000
  0.000000
  0.000000
  0.000000
  0.000000
  0.000000
  3.101460
  3.880480
  0.000000
 80.772797
 86.670998
 68.862198
 61.822102
 52.717800
 44.012798
 35.291000
 26.437599
 17.524599
 11.396100
  2.071990
441.036987
384.451996
354.309998
307.697998
264.335999
220.397995
176.552994
132.800003
 89.960899
 63.584202
 22.168800
</DataArray> 

<DataArray type="Float32" Name="Yhat_" format="ascii"> 
  0.010151
  0.009860
 -0.011023
  0.001057
 -0.004712
 -0.007045
  0.002068
 -0.002992
  3.095477
  3.868639
 -0.003265
 80.789230
 86.679535
 68.856628
 61.822327
 52.705410
 44.016808
 35.277699
 26.450836
 17.519482
 11.403853
  2.081724
441.037811
384.450317
354.299591
307.691376
264.322968
220.398132
176.546967
132.797516
 89.969681
 63.595146
 22.169159
</DataArray> 

 <DataArray type="Float32" Name="err_" format="ascii"> 
-0.010151
-0.009860
 0.011023
-0.001057
 0.004712
 0.007045
-0.002068
 0.002992
 0.005983
 0.011841
 0.003265
-0.016434
-0.008537
 0.005569
-0.000225
 0.012390
-0.004009
 0.013302
-0.013237
 0.005117
-0.007753
-0.009734
-0.000824
 0.001678
 0.010406
 0.006622
 0.013031
-0.000137
 0.006027
 0.002487
-0.008781
-0.010944
-0.000359
</DataArray> 
</PointData> 
<Cells> 
<DataArray type="Int32" Name="connectivity" format="ascii"> 
 0  1 12 11
 1  2 13 12
 2  3 14 13
 3  4 15 14
 4  5 16 15
 5  6 17 16
 6  7 18 17
 7  8 19 18
 8  9 20 19
 9 10 21 20
11 12 23 22
12 13 24 23
13 14 25 24
14 15 26 25
15 16 27 26
16 17 28 27
17 18 29 28
18 19 30 29
19 20 31 30
20 21 32 31
</DataArray>

<DataArray type="Int32" Name="offsets" format="ascii">
 4
 8
12
16
20
24
28
32
36
40
44
48
52
56
60
64
68
72
76
80
</DataArray>
<DataArray type="UInt8" Name="types" format="ascii">
9
9
9
9
9
9
9
9
9
9
9
9
9
9
9
9
9
9
9
9
</DataArray>
</Cells>
</Piece>
</UnstructuredGrid>
</VTKFile>
